MD simulation of a knot of polymer, t = 0.0
  400
    1X        X    1-104.526 -17.210  16.304
    2X        X    2-103.847 -17.046  15.602
    3X        X    3-103.240 -16.369  15.599
    4X        X    4-102.454 -16.368  14.895
    5X        X    5-101.483 -16.990  14.914
    6X        X    6-100.614 -17.535  15.137
    7X        X    7 -99.758 -17.640  15.691
    8X        X    8 -98.592 -17.484  15.950
    9X        X    9 -97.575 -17.559  15.489
   10X        X   10 -96.910 -18.385  15.619
   11X        X   11 -95.859 -18.727  15.464
   12X        X   12 -95.037 -19.381  15.230
   13X        X   13 -93.901 -19.465  15.547
   14X        X   14 -93.392 -19.151  16.249
   15X        X   15 -92.290 -19.002  15.858
   16X        X   16 -91.457 -19.595  16.277
   17X        X   17 -91.099 -20.504  16.268
   18X        X   18 -90.397 -21.504  16.178
   19X        X   19 -89.617 -21.294  15.369
   20X        X   20 -88.613 -21.651  15.097
   21X        X   21 -87.948 -21.111  15.518
   22X        X   22 -87.092 -20.592  14.997
   23X        X   23 -86.340 -20.313  15.639
   24X        X   24 -85.575 -19.877  14.849
   25X        X   25 -84.785 -19.124  14.935
   26X        X   26 -83.701 -19.246  15.320
   27X        X   27 -82.662 -18.808  15.237
   28X        X   28 -81.948 -18.246  14.549
   29X        X   29 -81.097 -18.425  14.563
   30X        X   30 -80.038 -18.068  14.225
   31X        X   31 -79.152 -17.808  14.196
   32X        X   32 -78.189 -17.053  14.068
   33X        X   33 -77.119 -17.165  14.223
   34X        X   34 -76.208 -16.763  14.111
   35X        X   35 -75.299 -17.262  13.601
   36X        X   36 -74.706 -16.322  13.986
   37X        X   37 -73.744 -16.477  14.085
   38X        X   38 -72.997 -17.342  14.255
   39X        X   39 -71.956 -16.843  14.183
   40X        X   40 -71.085 -16.649  13.755
   41X        X   41 -70.788 -15.775  13.953
   42X        X   42 -69.864 -15.537  14.282
   43X        X   43 -69.103 -16.070  13.976
   44X        X   44 -68.514 -16.057  13.174
   45X        X   45 -67.530 -16.377  13.347
   46X        X   46 -66.636 -16.987  13.383
   47X        X   47 -65.560 -17.416  13.659
   48X        X   48 -64.942 -16.690  14.119
   49X        X   49 -64.642 -16.576  15.109
   50X        X   50 -63.740 -16.027  14.860
   51X        X   51 -62.965 -16.207  15.441
   52X        X   52 -62.036 -16.303  15.042
   53X        X   53 -61.209 -16.851  15.004
   54X        X   54 -61.008 -17.259  15.916
   55X        X   55 -60.234 -17.834  15.800
   56X        X   56 -59.646 -18.768  15.467
   57X        X   57 -59.874 -19.237  14.599
   58X        X   58 -59.182 -19.382  13.839
   59X        X   59 -58.165 -19.081  13.709
   60X        X   60 -57.557 -18.735  12.935
   61X        X   61 -57.051 -18.063  13.359
   62X        X   62 -56.149 -18.526  13.576
   63X        X   63 -55.252 -19.200  13.032
   64X        X   64 -55.237 -19.984  12.517
   65X        X   65 -54.127 -20.229  12.548
   66X        X   66 -53.139 -20.093  12.680
   67X        X   67 -52.786 -19.667  13.563
   68X        X   68 -52.577 -18.680  13.317
   69X        X   69 -51.852 -18.201  13.500
   70X        X   70 -50.921 -18.760  13.776
   71X        X   71 -50.053 -18.349  14.386
   72X        X   72 -49.352 -17.780  14.834
   73X        X   73 -48.421 -17.819  14.946
   74X        X   74 -47.479 -17.469  14.868
   75X        X   75 -46.500 -17.918  14.976
   76X        X   76 -45.968 -18.120  15.815
   77X        X   77 -44.983 -18.243  15.676
   78X        X   78 -44.206 -18.010  15.086
   79X        X   79 -43.148 -18.095  15.524
   80X        X   80 -42.422 -18.258  16.143
   81X        X   81 -41.318 -18.466  16.639
   82X        X   82 -40.915 -18.939  15.706
   83X        X   83 -39.852 -18.572  15.386
   84X        X   84 -39.227 -18.818  16.230
   85X        X   85 -38.603 -18.216  17.027
   86X        X   86 -39.084 -18.641  17.965
   87X        X   87 -39.060 -19.562  18.275
   88X        X   88 -38.582 -20.250  17.565
   89X        X   89 -37.708 -20.385  17.935
   90X        X   90 -37.016 -20.716  18.484
   91X        X   91 -36.082 -20.886  19.086
   92X        X   92 -35.868 -20.005  19.593
   93X        X   93 -35.172 -19.786  19.974
   94X        X   94 -34.578 -18.904  20.210
   95X        X   95 -34.371 -17.758  20.443
   96X        X   96 -33.486 -17.160  19.801
   97X        X   97 -32.692 -17.465  19.149
   98X        X   98 -31.806 -17.417  19.186
   99X        X   99 -31.030 -17.045  19.937
  100X        X  100 -31.274 -15.937  19.897
  101X        X  101 -30.330 -15.557  20.107
  102X        X  102 -29.575 -15.310  19.518
  103X        X  103 -28.711 -16.015  19.760
  104X        X  104 -28.379 -16.657  20.326
  105X        X  105 -27.625 -16.947  20.848
  106X        X  106 -26.665 -16.712  21.203
  107X        X  107 -25.750 -16.417  21.192
  108X        X  108 -24.915 -16.916  21.533
  109X        X  109 -24.211 -17.234  22.327
  110X        X  110 -24.615 -17.557  23.231
  111X        X  111 -24.824 -17.322  24.239
  112X        X  112 -25.156 -17.412  25.075
  113X        X  113 -24.727 -16.771  25.787
  114X        X  114 -23.898 -16.075  25.506
  115X        X  115 -23.015 -15.899  25.352
  116X        X  116 -22.166 -15.272  25.110
  117X        X  117 -21.545 -14.907  24.596
  118X        X  118 -20.601 -14.534  24.699
  119X        X  119 -20.353 -13.597  24.153
  120X        X  120 -20.361 -13.874  23.171
  121X        X  121 -20.447 -13.387  22.291
  122X        X  122 -21.201 -13.172  21.522
  123X        X  123 -21.322 -12.276  20.836
  124X        X  124 -21.226 -12.524  19.899
  125X        X  125 -20.586 -12.181  19.192
  126X        X  126 -20.375 -11.608  18.425
  127X        X  127 -19.562 -11.507  17.702
  128X        X  128 -19.568 -10.544  17.473
  129X        X  129 -18.854 -10.012  16.761
  130X        X  130 -18.715  -9.178  16.323
  131X        X  131 -18.017  -8.742  15.742
  132X        X  132 -17.196  -8.625  16.314
  133X        X  133 -16.102  -8.182  16.398
  134X        X  134 -15.462  -8.606  17.062
  135X        X  135 -15.164  -9.348  16.886
  136X        X  136 -15.026  -9.749  15.969
  137X        X  137 -14.848 -10.832  15.577
  138X        X  138 -14.858 -11.221  14.703
  139X        X  139 -14.597 -11.058  13.671
  140X        X  140 -14.078 -10.363  13.121
  141X        X  141 -13.081 -10.046  12.899
  142X        X  142 -12.554  -9.180  13.420
  143X        X  143 -11.831  -8.553  13.792
  144X        X  144 -11.034  -8.587  13.347
  145X        X  145 -10.362  -9.501  12.824
  146X        X  146  -9.724  -9.085  12.275
  147X        X  147  -9.519  -8.435  11.585
  148X        X  148 -10.197  -8.130  10.891
  149X        X  149 -11.094  -7.845  10.649
  150X        X  150 -11.595  -7.233  10.182
  151X        X  151 -11.841  -6.736   9.404
  152X        X  152 -12.667  -6.461   9.122
  153X        X  153 -13.766  -6.674   8.671
  154X        X  154 -14.425  -6.764   7.687
  155X        X  155 -14.865  -7.547   6.954
  156X        X  156 -15.307  -8.432   6.775
  157X        X  157 -14.813  -9.321   7.172
  158X        X  158 -14.628  -9.939   7.857
  159X        X  159 -15.218 -10.899   7.642
  160X        X  160 -15.040 -11.572   6.758
  161X        X  161 -15.118 -11.116   5.948
  162X        X  162 -15.074 -10.835   4.969
  163X        X  163 -14.844 -10.026   4.402
  164X        X  164 -15.527  -9.499   3.816
  165X        X  165 -16.184 -10.156   3.371
  166X        X  166 -15.971 -10.686   2.276
  167X        X  167 -16.236 -10.552   1.215
  168X        X  168 -16.685 -10.271   0.369
  169X        X  169 -16.856  -9.673  -0.432
  170X        X  170 -16.593  -9.672  -1.455
  171X        X  171 -15.907 -10.326  -1.946
  172X        X  172 -15.803 -10.089  -2.911
  173X        X  173 -15.198 -10.796  -3.437
  174X        X  174 -15.977 -10.802  -4.276
  175X        X  175 -16.935 -11.047  -4.557
  176X        X  176 -17.861 -10.809  -4.424
  177X        X  177 -18.608 -10.240  -4.698
  178X        X  178 -18.855  -9.201  -4.885
  179X        X  179 -19.401  -9.135  -5.740
  180X        X  180 -19.792  -8.687  -6.718
  181X        X  181 -19.188  -8.941  -7.588
  182X        X  182 -18.235  -8.630  -8.014
  183X        X  183 -17.812  -7.909  -7.591
  184X        X  184 -17.921  -6.961  -7.920
  185X        X  185 -18.343  -6.096  -7.788
  186X        X  186 -18.043  -5.107  -8.001
  187X        X  187 -17.997  -4.058  -7.684
  188X        X  188 -17.589  -3.297  -7.281
  189X        X  189 -17.335  -2.843  -6.353
  190X        X  190 -16.505  -2.683  -5.638
  191X        X  191 -15.687  -2.780  -4.916
  192X        X  192 -15.061  -3.424  -4.223
  193X        X  193 -14.053  -3.437  -4.392
  194X        X  194 -13.304  -3.903  -4.487
  195X        X  195 -12.457  -4.148  -4.187
  196X        X  196 -11.774  -4.529  -3.870
  197X        X  197 -11.380  -4.805  -3.025
  198X        X  198 -10.671  -4.679  -2.338
  199X        X  199  -9.858  -5.362  -2.601
  200X        X  200  -9.411  -6.168  -2.760
  201X        X  201  -9.161  -6.646  -1.920
  202X        X  202  -9.009  -7.541  -2.087
  203X        X  203  -9.454  -8.239  -2.609
  204X        X  204  -9.157  -8.550  -3.584
  205X        X  205  -8.794  -8.225  -4.505
  206X        X  206  -8.499  -9.151  -5.018
  207X        X  207  -8.750  -8.945  -6.043
  208X        X  208  -9.526  -8.487  -6.193
  209X        X  209 -10.504  -8.278  -5.736
  210X        X  210 -11.309  -8.893  -5.894
  211X        X  211 -11.793  -8.835  -6.893
  212X        X  212 -12.701  -8.772  -6.478
  213X        X  213 -13.860  -8.554  -6.328
  214X        X  214 -14.646  -8.683  -6.879
  215X        X  215 -15.163  -9.509  -6.655
  216X        X  216 -16.010  -9.263  -5.985
  217X        X  217 -15.934  -8.969  -4.967
  218X        X  218 -16.698  -9.236  -4.255
  219X        X  219 -17.322  -9.069  -3.548
  220X        X  220 -17.693  -8.501  -2.920
  221X        X  221 -18.616  -8.850  -2.559
  222X        X  222 -18.315  -9.502  -1.661
  223X        X  223 -18.356 -10.521  -1.782
  224X        X  224 -18.162 -11.513  -2.032
  225X        X  225 -18.322 -12.027  -2.725
  226X        X  226 -17.984 -12.634  -3.538
  227X        X  227 -17.858 -13.677  -3.871
  228X        X  228 -17.362 -14.411  -4.120
  229X        X  229 -16.425 -14.783  -3.629
  230X        X  230 -15.311 -14.367  -3.317
  231X        X  231 -14.445 -14.239  -2.886
  232X        X  232 -13.749 -13.482  -3.035
  233X        X  233 -13.735 -12.611  -3.125
  234X        X  234 -12.979 -12.084  -3.594
  235X        X  235 -12.937 -11.000  -3.355
  236X        X  236 -12.962 -10.461  -4.128
  237X        X  237 -13.679  -9.589  -4.254
  238X        X  238 -13.988  -9.125  -3.423
  239X        X  239 -13.859  -8.030  -3.537
  240X        X  240 -14.975  -7.702  -3.629
  241X        X  241 -15.016  -6.599  -3.587
  242X        X  242 -15.134  -5.709  -4.041
  243X        X  243 -14.587  -5.609  -4.885
  244X        X  244 -14.313  -5.196  -5.789
  245X        X  245 -14.379  -4.183  -6.174
  246X        X  246 -14.390  -3.913  -7.018
  247X        X  247 -14.345  -3.671  -8.132
  248X        X  248 -13.932  -2.893  -8.615
  249X        X  249 -13.278  -3.386  -9.252
  250X        X  250 -12.889  -4.164  -8.826
  251X        X  251 -13.252  -5.131  -9.083
  252X        X  252 -13.346  -5.614  -8.068
  253X        X  253 -12.543  -6.327  -7.947
  254X        X  254 -12.252  -6.860  -8.738
  255X        X  255 -11.264  -7.309  -8.825
  256X        X  256 -10.699  -8.001  -9.417
  257X        X  257 -11.592  -8.587 -10.043
  258X        X  258 -10.822  -8.667 -10.889
  259X        X  259 -10.402  -9.426 -11.258
  260X        X  260  -9.938  -9.575 -12.376
  261X        X  261  -9.490  -9.856 -13.291
  262X        X  262  -8.640  -9.579 -13.336
  263X        X  263  -8.107  -9.577 -14.233
  264X        X  264  -7.841  -8.651 -14.195
  265X        X  265  -7.054  -8.367 -14.827
  266X        X  266  -6.715  -7.687 -15.315
  267X        X  267  -5.624  -7.433 -15.268
  268X        X  268  -4.870  -7.931 -14.961
  269X        X  269  -5.107  -8.724 -14.296
  270X        X  270  -5.612  -9.458 -14.617
  271X        X  271  -5.947  -9.997 -15.209
  272X        X  272  -6.608 -10.192 -16.229
  273X        X  273  -6.499 -10.432 -17.268
  274X        X  274  -5.806 -11.004 -17.916
  275X        X  275  -5.669 -11.817 -18.668
  276X        X  276  -5.054 -12.401 -18.183
  277X        X  277  -4.049 -12.785 -18.373
  278X        X  278  -3.345 -13.313 -18.386
  279X        X  279  -2.371 -13.363 -17.816
  280X        X  280  -1.876 -12.458 -17.768
  281X        X  281  -1.765 -12.215 -18.906
  282X        X  282  -0.769 -12.480 -19.209
  283X        X  283   0.270 -12.427 -19.285
  284X        X  284   1.231 -12.478 -19.679
  285X        X  285   1.920 -12.266 -20.283
  286X        X  286   2.604 -12.601 -21.096
  287X        X  287   3.479 -13.316 -21.288
  288X        X  288   4.132 -13.794 -21.771
  289X        X  289   4.278 -13.757 -22.881
  290X        X  290   4.850 -14.823 -23.244
  291X        X  291   4.892 -15.170 -24.147
  292X        X  292   5.929 -15.733 -24.322
  293X        X  293   6.906 -15.464 -24.778
  294X        X  294   7.634 -15.453 -25.519
  295X        X  295   8.602 -15.422 -25.373
  296X        X  296   9.258 -15.346 -24.863
  297X        X  297  10.146 -15.852 -25.360
  298X        X  298  10.738 -15.741 -26.130
  299X        X  299  11.443 -15.159 -26.624
  300X        X  300  12.063 -15.665 -27.184
  301X        X  301  12.354 -16.686 -27.120
  302X        X  302  12.986 -16.692 -26.315
  303X        X  303  14.026 -17.079 -26.187
  304X        X  304  14.992 -17.117 -26.131
  305X        X  305  15.364 -18.005 -26.976
  306X        X  306  15.814 -18.527 -27.671
  307X        X  307  16.722 -18.492 -27.883
  308X        X  308  17.626 -18.823 -27.521
  309X        X  309  18.204 -19.168 -28.171
  310X        X  310  19.302 -19.269 -28.167
  311X        X  311  19.978 -19.320 -27.530
  312X        X  312  20.904 -19.418 -27.733
  313X        X  313  21.679 -19.784 -27.981
  314X        X  314  22.577 -19.917 -27.687
  315X        X  315  23.354 -20.069 -26.851
  316X        X  316  23.957 -20.776 -26.667
  317X        X  317  24.916 -21.225 -27.098
  318X        X  318  26.050 -21.035 -26.959
  319X        X  319  27.004 -21.043 -27.074
  320X        X  320  27.817 -21.282 -26.312
  321X        X  321  29.152 -20.990 -26.251
  322X        X  322  29.754 -21.061 -25.550
  323X        X  323  30.604 -20.668 -25.462
  324X        X  324  30.819 -20.064 -24.892
  325X        X  325  31.551 -19.394 -24.791
  326X        X  326  32.466 -19.601 -25.502
  327X        X  327  33.426 -19.049 -25.149
  328X        X  328  33.552 -18.891 -24.280
  329X        X  329  34.378 -18.540 -23.810
  330X        X  330  35.627 -18.893 -23.952
  331X        X  331  36.577 -18.249 -23.252
  332X        X  332  37.567 -18.046 -23.786
  333X        X  333  38.025 -17.380 -24.295
  334X        X  334  38.764 -17.796 -25.037
  335X        X  335  39.314 -18.470 -25.612
  336X        X  336  39.653 -18.877 -26.425
  337X        X  337  40.486 -18.867 -27.192
  338X        X  338  41.105 -17.967 -26.870
  339X        X  339  41.808 -17.879 -26.303
  340X        X  340  42.901 -18.273 -26.414
  341X        X  341  43.854 -17.777 -26.145
  342X        X  342  44.262 -18.964 -26.079
  343X        X  343  45.111 -19.293 -26.617
  344X        X  344  45.471 -20.197 -27.018
  345X        X  345  46.629 -20.271 -27.284
  346X        X  346  47.472 -19.539 -27.679
  347X        X  347  48.189 -18.957 -28.295
  348X        X  348  48.837 -19.692 -28.575
  349X        X  349  49.833 -19.209 -28.517
  350X        X  350  50.714 -18.802 -29.238
  351X        X  351  51.610 -18.870 -28.897
  352X        X  352  52.635 -18.737 -28.706
  353X        X  353  53.494 -18.972 -28.342
  354X        X  354  53.802 -19.595 -27.642
  355X        X  355  54.470 -18.975 -26.854
  356X        X  356  55.431 -19.037 -27.058
  357X        X  357  55.824 -20.083 -27.327
  358X        X  358  56.700 -20.608 -26.930
  359X        X  359  57.423 -20.458 -26.235
  360X        X  360  58.633 -20.280 -26.060
  361X        X  361  59.455 -21.100 -25.994
  362X        X  362  60.486 -20.981 -25.442
  363X        X  363  61.380 -20.774 -25.613
  364X        X  364  61.998 -20.535 -26.491
  365X        X  365  62.840 -20.105 -26.093
  366X        X  366  63.666 -20.409 -25.538
  367X        X  367  64.550 -20.144 -25.315
  368X        X  368  65.507 -20.462 -25.153
  369X        X  369  66.519 -20.011 -24.679
  370X        X  370  67.481 -20.000 -24.902
  371X        X  371  68.267 -19.962 -24.413
  372X        X  372  69.237 -20.284 -24.282
  373X        X  373  70.081 -19.787 -24.068
  374X        X  374  70.776 -19.271 -24.304
  375X        X  375  71.318 -18.448 -24.095
  376X        X  376  72.159 -17.984 -23.721
  377X        X  377  73.052 -18.072 -23.217
  378X        X  378  73.880 -18.521 -22.701
  379X        X  379  74.906 -18.132 -23.025
  380X        X  380  75.571 -18.446 -23.729
  381X        X  381  76.391 -17.935 -23.670
  382X        X  382  76.684 -17.159 -24.377
  383X        X  383  77.256 -16.340 -24.845
  384X        X  384  78.265 -16.404 -24.781
  385X        X  385  79.097 -16.955 -24.772
  386X        X  386  80.231 -17.182 -24.603
  387X        X  387  81.107 -17.288 -24.453
  388X        X  388  82.020 -17.842 -24.333
  389X        X  389  83.048 -17.387 -24.290
  390X        X  390  83.902 -17.917 -24.324
  391X        X  391  84.379 -18.875 -24.421
  392X        X  392  85.061 -19.788 -24.458
  393X        X  393  85.931 -19.731 -24.730
  394X        X  394  86.680 -19.224 -24.045
  395X        X  395  87.760 -18.793 -24.124
  396X        X  396  88.755 -19.170 -24.386
  397X        X  397  89.577 -19.497 -24.967
  398X        X  398  90.464 -19.270 -25.055
  399X        X  399  91.263 -19.970 -25.164
  400X        X  400  92.286 -19.709 -25.641
   0.00000   0.00000   0.00000
