MD simulation of a knot of polymer, t = 0.0
  400
    1X        X    1 -95.089 -16.259  12.961
    2X        X    2 -93.974 -16.521  12.928
    3X        X    3 -92.872 -16.435  12.578
    4X        X    4 -92.150 -16.061  12.938
    5X        X    5 -91.260 -16.437  13.792
    6X        X    6 -90.581 -15.997  12.988
    7X        X    7 -89.643 -15.913  12.633
    8X        X    8 -88.992 -15.027  12.016
    9X        X    9 -88.095 -15.257  12.418
   10X        X   10 -86.891 -14.927  12.811
   11X        X   11 -85.970 -15.008  13.129
   12X        X   12 -85.280 -14.532  12.475
   13X        X   13 -84.625 -14.967  11.729
   14X        X   14 -83.410 -15.243  11.435
   15X        X   15 -83.460 -16.210  12.159
   16X        X   16 -82.617 -16.375  12.652
   17X        X   17 -83.246 -17.137  13.436
   18X        X   18 -82.144 -17.177  13.961
   19X        X   19 -81.803 -18.120  14.139
   20X        X   20 -80.892 -17.960  13.781
   21X        X   21 -80.189 -18.268  13.687
   22X        X   22 -79.543 -18.964  13.789
   23X        X   23 -78.933 -19.217  13.069
   24X        X   24 -77.908 -19.130  12.700
   25X        X   25 -76.933 -19.092  12.425
   26X        X   26 -76.832 -17.895  12.053
   27X        X   27 -76.295 -16.974  11.659
   28X        X   28 -76.032 -15.974  12.045
   29X        X   29 -75.555 -15.131  12.885
   30X        X   30 -74.484 -15.256  12.724
   31X        X   31 -74.221 -14.630  13.743
   32X        X   32 -73.570 -14.135  13.052
   33X        X   33 -73.138 -14.513  12.089
   34X        X   34 -72.078 -14.681  12.394
   35X        X   35 -71.221 -14.813  13.059
   36X        X   36 -70.468 -15.428  12.673
   37X        X   37 -69.502 -14.757  12.747
   38X        X   38 -68.961 -15.054  13.091
   39X        X   39 -68.111 -15.631  13.203
   40X        X   40 -67.541 -15.427  12.366
   41X        X   41 -67.107 -16.284  11.903
   42X        X   42 -65.680 -16.061  11.485
   43X        X   43 -64.727 -15.617  11.026
   44X        X   44 -63.712 -15.678  10.296
   45X        X   45 -63.033 -15.444   9.523
   46X        X   46 -62.541 -15.737   8.737
   47X        X   47 -62.160 -17.159   8.509
   48X        X   48 -60.946 -17.265   8.652
   49X        X   49 -60.348 -17.621   9.694
   50X        X   50 -59.580 -18.328  10.215
   51X        X   51 -58.970 -18.733  10.489
   52X        X   52 -57.966 -17.874  10.370
   53X        X   53 -56.801 -17.907   9.846
   54X        X   54 -56.112 -17.436  10.652
   55X        X   55 -55.322 -16.950  10.096
   56X        X   56 -54.312 -17.418  10.597
   57X        X   57 -53.779 -16.432  10.796
   58X        X   58 -52.796 -16.446  11.083
   59X        X   59 -51.574 -16.169  11.135
   60X        X   60 -50.654 -16.199  10.726
   61X        X   61 -50.279 -15.669   9.877
   62X        X   62 -49.248 -16.081   9.784
   63X        X   63 -49.041 -16.636  10.604
   64X        X   64 -48.484 -17.678  10.226
   65X        X   65 -47.720 -18.440  10.053
   66X        X   66 -47.169 -19.233  10.090
   67X        X   67 -46.489 -19.120  10.879
   68X        X   68 -45.615 -19.342  10.936
   69X        X   69 -45.794 -20.217  11.539
   70X        X   70 -44.973 -20.883  12.331
   71X        X   71 -43.840 -21.352  12.260
   72X        X   72 -43.123 -21.305  12.700
   73X        X   73 -42.405 -20.655  12.031
   74X        X   74 -41.397 -21.228  12.028
   75X        X   75 -40.620 -20.546  12.600
   76X        X   76 -39.700 -19.808  12.213
   77X        X   77 -38.872 -19.389  12.206
   78X        X   78 -38.170 -19.579  12.992
   79X        X   79 -37.978 -20.665  13.621
   80X        X   80 -37.970 -21.822  13.664
   81X        X   81 -37.634 -22.615  14.337
   82X        X   82 -36.665 -22.943  13.805
   83X        X   83 -35.552 -22.858  14.230
   84X        X   84 -35.544 -21.716  14.451
   85X        X   85 -35.285 -20.445  14.395
   86X        X   86 -34.446 -20.203  13.992
   87X        X   87 -34.009 -19.719  14.853
   88X        X   88 -33.059 -18.950  14.807
   89X        X   89 -32.386 -18.839  15.522
   90X        X   90 -31.876 -19.242  16.248
   91X        X   91 -31.635 -18.191  16.802
   92X        X   92 -31.563 -18.685  17.881
   93X        X   93 -31.308 -18.491  18.838
   94X        X   94 -30.915 -18.382  19.530
   95X        X   95 -30.428 -18.311  20.463
   96X        X   96 -30.167 -17.286  20.505
   97X        X   97 -30.181 -16.388  21.339
   98X        X   98 -30.418 -15.756  21.903
   99X        X   99 -30.728 -15.529  23.220
  100X        X  100 -30.236 -14.587  23.085
  101X        X  101 -29.309 -14.110  22.923
  102X        X  102 -28.632 -14.112  22.213
  103X        X  103 -27.620 -13.566  21.978
  104X        X  104 -26.475 -13.275  21.853
  105X        X  105 -26.380 -12.840  20.898
  106X        X  106 -25.384 -12.305  20.257
  107X        X  107 -25.462 -11.960  19.425
  108X        X  108 -24.948 -11.890  18.652
  109X        X  109 -24.018 -12.045  18.168
  110X        X  110 -23.123 -13.028  18.397
  111X        X  111 -22.107 -12.601  18.757
  112X        X  112 -21.510 -13.056  19.494
  113X        X  113 -20.566 -12.758  18.926
  114X        X  114 -19.822 -13.265  19.064
  115X        X  115 -19.868 -13.731  20.477
  116X        X  116 -19.157 -14.548  20.332
  117X        X  117 -18.416 -14.595  21.063
  118X        X  118 -17.735 -15.223  20.903
  119X        X  119 -17.039 -15.349  20.414
  120X        X  120 -16.115 -15.111  19.502
  121X        X  121 -16.092 -14.629  18.993
  122X        X  122 -15.705 -13.929  18.384
  123X        X  123 -16.090 -12.954  18.721
  124X        X  124 -16.790 -12.527  18.517
  125X        X  125 -17.330 -12.032  18.202
  126X        X  126 -17.855 -11.073  18.164
  127X        X  127 -18.616 -10.592  18.241
  128X        X  128 -19.344 -10.050  18.986
  129X        X  129 -19.077  -9.271  18.776
  130X        X  130 -19.135  -8.367  18.676
  131X        X  131 -18.553  -8.043  17.828
  132X        X  132 -18.266  -7.916  16.810
  133X        X  133 -17.901  -7.950  16.196
  134X        X  134 -17.136  -8.425  15.531
  135X        X  135 -16.571  -7.413  15.736
  136X        X  136 -17.101  -6.657  15.023
  137X        X  137 -16.573  -5.791  15.103
  138X        X  138 -16.095  -4.978  15.242
  139X        X  139 -16.229  -3.783  14.579
  140X        X  140 -15.831  -2.937  14.529
  141X        X  141 -15.638  -3.046  13.422
  142X        X  142 -14.885  -2.314  13.239
  143X        X  143 -14.694  -1.881  12.224
  144X        X  144 -15.379  -1.633  11.682
  145X        X  145 -16.250  -2.026  11.144
  146X        X  146 -16.741  -1.222  10.734
  147X        X  147 -17.813  -1.473  10.723
  148X        X  148 -17.751  -1.373   9.419
  149X        X  149 -18.181  -1.248   8.494
  150X        X  150 -17.801  -1.249   7.256
  151X        X  151 -17.963  -1.403   6.403
  152X        X  152 -18.158  -2.011   5.470
  153X        X  153 -16.943  -2.651   5.147
  154X        X  154 -16.727  -3.596   4.764
  155X        X  155 -17.501  -4.140   4.486
  156X        X  156 -17.510  -4.863   3.607
  157X        X  157 -17.553  -4.738   2.389
  158X        X  158 -17.527  -3.741   2.398
  159X        X  159 -18.610  -3.194   1.708
  160X        X  160 -19.638  -3.304   2.012
  161X        X  161 -20.348  -3.964   2.068
  162X        X  162 -21.256  -3.315   2.447
  163X        X  163 -22.216  -2.929   2.248
  164X        X  164 -23.013  -3.396   2.954
  165X        X  165 -23.326  -3.221   3.980
  166X        X  166 -23.805  -4.343   4.038
  167X        X  167 -23.474  -5.018   3.208
  168X        X  168 -22.735  -5.376   2.190
  169X        X  169 -22.693  -6.265   1.458
  170X        X  170 -23.367  -6.853   1.909
  171X        X  171 -23.428  -8.199   1.977
  172X        X  172 -22.833  -8.201   1.081
  173X        X  173 -22.528  -8.333  -0.137
  174X        X  174 -21.455  -8.553  -0.805
  175X        X  175 -20.327  -9.228  -0.703
  176X        X  176 -19.507  -8.985  -1.133
  177X        X  177 -18.484  -8.834  -1.400
  178X        X  178 -17.348  -8.634  -1.385
  179X        X  179 -16.312  -8.603  -1.578
  180X        X  180 -16.519  -7.744  -2.365
  181X        X  181 -17.310  -7.417  -2.607
  182X        X  182 -17.529  -6.336  -1.894
  183X        X  183 -16.758  -5.387  -2.152
  184X        X  184 -15.867  -5.219  -3.152
  185X        X  185 -15.097  -4.593  -3.594
  186X        X  186 -14.744  -5.221  -4.249
  187X        X  187 -14.938  -5.071  -5.287
  188X        X  188 -13.917  -5.318  -6.001
  189X        X  189 -13.191  -5.295  -6.657
  190X        X  190 -12.483  -4.461  -5.922
  191X        X  191 -11.614  -4.497  -5.687
  192X        X  192 -10.535  -4.399  -5.286
  193X        X  193 -10.069  -3.882  -4.616
  194X        X  194  -9.408  -3.645  -4.081
  195X        X  195  -9.484  -4.412  -3.162
  196X        X  196  -8.439  -4.680  -2.830
  197X        X  197  -8.564  -4.936  -1.963
  198X        X  198  -8.933  -6.002  -2.116
  199X        X  199  -8.556  -7.217  -2.352
  200X        X  200  -7.964  -8.176  -2.851
  201X        X  201  -8.704  -8.852  -3.116
  202X        X  202  -9.377  -8.780  -3.585
  203X        X  203 -10.388  -8.959  -4.010
  204X        X  204 -10.736  -8.280  -4.231
  205X        X  205 -10.924  -7.757  -5.058
  206X        X  206 -10.753  -6.773  -4.554
  207X        X  207 -11.384  -6.073  -4.352
  208X        X  208 -11.311  -5.362  -4.048
  209X        X  209 -11.242  -4.494  -3.462
  210X        X  210 -11.425  -3.586  -2.958
  211X        X  211 -12.040  -3.092  -3.823
  212X        X  212 -11.903  -2.508  -4.879
  213X        X  213 -12.918  -2.435  -5.126
  214X        X  214 -13.243  -1.520  -5.041
  215X        X  215 -13.465  -1.435  -6.318
  216X        X  216 -14.545  -1.489  -6.262
  217X        X  217 -14.981  -1.707  -7.000
  218X        X  218 -15.809  -1.515  -7.137
  219X        X  219 -16.551  -1.614  -7.631
  220X        X  220 -16.883  -2.595  -6.985
  221X        X  221 -16.441  -3.517  -7.799
  222X        X  222 -17.061  -4.231  -7.617
  223X        X  223 -17.540  -5.152  -7.261
  224X        X  224 -17.475  -5.712  -6.510
  225X        X  225 -17.017  -6.170  -5.957
  226X        X  226 -16.666  -6.631  -5.389
  227X        X  227 -16.189  -7.449  -5.036
  228X        X  228 -15.463  -7.789  -5.495
  229X        X  229 -15.294  -8.823  -4.879
  230X        X  230 -14.847  -9.139  -3.721
  231X        X  231 -14.440  -8.297  -2.906
  232X        X  232 -14.275  -8.611  -1.784
  233X        X  233 -13.557  -8.431  -1.567
  234X        X  234 -13.114  -7.581  -0.913
  235X        X  235 -12.286  -6.656  -0.842
  236X        X  236 -11.391  -6.363  -0.959
  237X        X  237 -10.774  -6.738  -1.346
  238X        X  238 -10.434  -7.229  -2.321
  239X        X  239  -9.797  -6.909  -3.241
  240X        X  240  -9.266  -6.388  -4.019
  241X        X  241  -8.995  -6.323  -4.910
  242X        X  242  -8.659  -6.891  -5.697
  243X        X  243  -8.040  -7.588  -5.894
  244X        X  244  -8.059  -7.748  -7.109
  245X        X  245  -8.626  -8.223  -8.072
  246X        X  246  -8.548  -9.037  -7.812
  247X        X  247  -9.274  -9.658  -8.077
  248X        X  248  -9.441 -10.045  -9.227
  249X        X  249 -10.168  -9.705  -9.911
  250X        X  250 -10.497 -10.704 -10.435
  251X        X  251 -10.286 -11.469 -11.312
  252X        X  252  -9.969 -12.666 -11.381
  253X        X  253  -9.953 -13.720 -11.559
  254X        X  254  -9.746 -14.899 -11.327
  255X        X  255  -8.838 -15.016 -11.926
  256X        X  256  -8.815 -14.419 -12.947
  257X        X  257  -8.949 -14.155 -13.876
  258X        X  258  -8.980 -13.825 -14.653
  259X        X  259  -9.106 -13.304 -15.763
  260X        X  260  -8.935 -13.285 -16.997
  261X        X  261  -9.658 -12.575 -17.454
  262X        X  262 -10.527 -13.039 -17.849
  263X        X  263 -10.965 -13.554 -18.760
  264X        X  264 -10.860 -13.034 -19.824
  265X        X  265 -11.586 -13.150 -20.582
  266X        X  266 -12.172 -14.026 -20.194
  267X        X  267 -12.377 -14.907 -20.305
  268X        X  268 -12.087 -15.664 -20.791
  269X        X  269 -11.224 -15.729 -21.550
  270X        X  270 -10.394 -16.512 -21.580
  271X        X  271  -9.509 -17.267 -21.980
  272X        X  272  -8.541 -16.724 -21.710
  273X        X  273  -7.638 -15.851 -21.841
  274X        X  274  -7.580 -15.157 -21.594
  275X        X  275  -6.951 -14.416 -21.192
  276X        X  276  -6.291 -14.151 -22.281
  277X        X  277  -5.698 -14.858 -22.102
  278X        X  278  -5.316 -15.479 -21.193
  279X        X  279  -4.653 -16.032 -22.003
  280X        X  280  -4.164 -15.535 -22.794
  281X        X  281  -3.145 -15.166 -22.730
  282X        X  282  -2.455 -14.150 -22.707
  283X        X  283  -3.196 -12.985 -23.149
  284X        X  284  -3.675 -12.110 -23.623
  285X        X  285  -3.105 -11.269 -22.942
  286X        X  286  -2.429 -10.477 -23.563
  287X        X  287  -1.317 -10.255 -23.805
  288X        X  288  -0.855  -9.501 -23.783
  289X        X  289  -0.005  -9.360 -23.501
  290X        X  290   0.798 -10.269 -23.947
  291X        X  291   1.454 -10.380 -23.044
  292X        X  292   1.946 -11.401 -22.624
  293X        X  293   2.446 -12.046 -23.082
  294X        X  294   2.795 -12.918 -22.599
  295X        X  295   3.608 -13.177 -23.349
  296X        X  296   4.105 -14.064 -24.049
  297X        X  297   4.285 -15.174 -23.703
  298X        X  298   4.899 -15.566 -23.047
  299X        X  299   5.401 -16.467 -23.932
  300X        X  300   6.032 -17.023 -24.610
  301X        X  301   6.461 -17.756 -24.789
  302X        X  302   6.407 -18.667 -24.649
  303X        X  303   7.288 -19.061 -24.219
  304X        X  304   7.726 -19.620 -24.342
  305X        X  305   7.879 -20.131 -25.476
  306X        X  306   8.980 -19.956 -25.388
  307X        X  307   9.738 -20.484 -25.633
  308X        X  308  10.824 -20.598 -25.892
  309X        X  309  11.508 -20.634 -26.199
  310X        X  310  12.522 -20.994 -26.720
  311X        X  311  13.685 -20.442 -27.073
  312X        X  312  14.536 -19.644 -27.106
  313X        X  313  15.434 -19.965 -27.309
  314X        X  314  15.806 -20.758 -27.600
  315X        X  315  16.808 -20.478 -28.280
  316X        X  316  17.332 -20.667 -29.367
  317X        X  317  18.377 -20.981 -29.058
  318X        X  318  19.335 -21.079 -29.106
  319X        X  319  20.161 -21.957 -28.773
  320X        X  320  20.847 -22.198 -29.403
  321X        X  321  21.715 -22.346 -28.900
  322X        X  322  22.629 -23.077 -29.194
  323X        X  323  22.991 -23.873 -29.735
  324X        X  324  22.653 -24.007 -30.785
  325X        X  325  23.175 -24.052 -31.421
  326X        X  326  24.319 -24.374 -32.000
  327X        X  327  25.177 -24.833 -31.165
  328X        X  328  25.866 -24.753 -31.091
  329X        X  329  26.932 -24.875 -30.593
  330X        X  330  28.145 -24.565 -30.480
  331X        X  331  29.262 -24.394 -30.832
  332X        X  332  29.585 -23.549 -30.958
  333X        X  333  30.454 -23.439 -31.548
  334X        X  334  31.119 -22.732 -31.880
  335X        X  335  31.927 -23.560 -31.470
  336X        X  336  33.054 -23.779 -31.333
  337X        X  337  34.195 -23.988 -31.171
  338X        X  338  35.122 -23.991 -31.371
  339X        X  339  35.617 -24.962 -31.004
  340X        X  340  36.492 -24.897 -31.536
  341X        X  341  37.405 -24.225 -31.227
  342X        X  342  38.381 -24.596 -31.206
  343X        X  343  38.775 -25.348 -30.950
  344X        X  344  39.644 -26.122 -30.531
  345X        X  345  40.238 -24.816 -30.277
  346X        X  346  41.095 -24.844 -29.800
  347X        X  347  41.702 -25.162 -28.945
  348X        X  348  42.669 -24.902 -28.777
  349X        X  349  43.221 -24.587 -28.096
  350X        X  350  44.239 -24.637 -28.172
  351X        X  351  44.742 -23.813 -28.269
  352X        X  352  45.554 -23.518 -28.513
  353X        X  353  46.321 -22.729 -28.042
  354X        X  354  47.365 -22.442 -27.714
  355X        X  355  48.247 -22.615 -26.995
  356X        X  356  49.321 -23.193 -26.653
  357X        X  357  50.341 -22.977 -27.295
  358X        X  358  50.946 -22.527 -27.821
  359X        X  359  51.608 -22.392 -28.944
  360X        X  360  52.463 -22.362 -28.444
  361X        X  361  53.510 -21.693 -27.774
  362X        X  362  54.598 -21.515 -27.778
  363X        X  363  55.197 -21.779 -26.784
  364X        X  364  55.546 -21.001 -25.946
  365X        X  365  56.478 -21.131 -25.526
  366X        X  366  57.359 -21.526 -25.572
  367X        X  367  58.111 -22.266 -25.104
  368X        X  368  57.746 -23.269 -25.440
  369X        X  369  58.554 -23.601 -25.377
  370X        X  370  59.237 -23.428 -24.750
  371X        X  371  60.134 -23.210 -24.132
  372X        X  372  60.949 -22.990 -24.215
  373X        X  373  61.694 -22.519 -25.298
  374X        X  374  62.064 -23.435 -25.296
  375X        X  375  63.219 -23.596 -25.551
  376X        X  376  63.796 -22.941 -25.624
  377X        X  377  64.306 -22.323 -26.388
  378X        X  378  65.051 -21.506 -26.308
  379X        X  379  66.009 -20.999 -26.438
  380X        X  380  66.628 -20.529 -26.419
  381X        X  381  67.359 -20.021 -25.986
  382X        X  382  68.507 -20.018 -26.273
  383X        X  383  69.328 -19.787 -26.223
  384X        X  384  70.384 -20.105 -26.247
  385X        X  385  71.354 -20.535 -25.811
  386X        X  386  71.832 -19.657 -25.863
  387X        X  387  73.151 -19.503 -25.723
  388X        X  388  73.154 -19.560 -24.536
  389X        X  389  73.716 -19.257 -23.772
  390X        X  390  74.080 -19.394 -22.658
  391X        X  391  74.588 -19.906 -21.699
  392X        X  392  75.593 -19.166 -22.104
  393X        X  393  76.525 -19.336 -22.381
  394X        X  394  77.323 -18.904 -21.797
  395X        X  395  78.356 -18.380 -22.454
  396X        X  396  79.082 -17.844 -22.214
  397X        X  397  79.096 -16.949 -21.744
  398X        X  398  80.332 -17.262 -21.011
  399X        X  399  81.212 -18.276 -21.200
  400X        X  400  82.250 -18.528 -20.614
   0.00000   0.00000   0.00000
