MD simulation of a polymer, t = 0.0
   32
    1X        X    1   0.000   0.000   0.000
    2X        X    2   1.000   0.000   1.000
    3X        X    3   2.000   0.000   2.000
    4X        X    4   3.000   0.000   1.000
    5X        X    5   4.000   0.000   0.000
    6X        X    6   5.000   0.000   0.000
    7X        X    7   6.000   0.000   0.000
    8X        X    8   6.000   1.000   0.000
    9X        X    9   6.000   2.000   0.000
   10X        X   10   6.000   3.000   0.000
   11X        X   11   6.000   4.000   0.000
   12X        X   12   5.000   4.000   0.000
   13X        X   13   4.000   4.000   0.000
   14X        X   14   3.000   4.000   0.000
   15X        X   15   2.000   4.000   0.000
   16X        X   16   2.000   3.000   1.000
   17X        X   17   2.000   2.000   2.000
   18X        X   18   2.000   1.000   1.000
   19X        X   19   2.000   0.000   0.000
   20X        X   20   2.000  -1.000   0.000
   21X        X   21   2.000  -2.000   0.000
   22X        X   22   3.000  -2.000   0.000
   23X        X   23   4.000  -2.000   0.000
   24X        X   24   4.000  -1.000   1.000
   25X        X   25   4.000   0.000   2.000
   26X        X   26   4.000   1.000   1.000
   27X        X   27   4.000   2.000   0.000
   28X        X   28   3.000   2.000   0.000
   29X        X   29   2.000   2.000   0.000
   30X        X   30   1.000   2.000   0.000
   31X        X   31   0.000   2.000   0.000
   32X        X   32   0.000   1.000   0.000
   0.00000   0.00000   0.00000
