K_3_L_N23 minimal knot t = 0.0
   23
    1X        X    1   0.000   0.000  -1.000
    2X        X    2   0.000   0.000   0.000
    3X        X    3   0.000   0.000   1.000
    4X        X    4   0.000   0.000   2.000
    5X        X    5  -1.000   0.000   2.000
    6X        X    6  -2.000   0.000   2.000
    7X        X    7  -2.000  -1.000   2.000
    8X        X    8  -2.000  -1.000   1.000
    9X        X    9  -2.000  -1.000   0.000
   10X        X   10  -1.000  -1.000   0.000
   11X        X   11   0.000  -1.000   0.000
   12X        X   12   1.000  -1.000   0.000
   13X        X   13   1.000   0.000   0.000
   14X        X   14   1.000   1.000   0.000
   15X        X   15   1.000   1.000   1.000
   16X        X   16   0.000   1.000   1.000
   17X        X   17  -1.000   1.000   1.000
   18X        X   18  -1.000   0.000   1.000
   19X        X   19  -1.000  -1.000   1.000
   20X        X   20  -1.000  -2.000   1.000
   21X        X   21  -1.000  -2.000   0.000
   22X        X   22  -1.000  -2.000  -1.000
   23X        X   23   0.000  -2.000  -1.000
	   0.00000   0.00000   0.00000
